/*--------------------------------*- C++ -*----------------------------------*\
| =========                 |                                                 |
| \\      /  F ield         | OpenFOAM: The Open Source CFD Toolbox           |
|  \\    /   O peration     | Version:  v2206                                 |
|   \\  /    A nd           | Website:  www.openfoam.com                      |
|    \\/     M anipulation  |                                                 |
\*---------------------------------------------------------------------------*/
FoamFile
{
    version     2.0;
    format      ascii;
    class       volScalarField;
    object      V;
}
// * * * * * * * * * * * * * * * * * * * * * * * * * * * * * * * * * * * * * //

dimensions      [1 2 -3 0 0 -1 0];

internalField   uniform 0;

boundaryField
{
    "outlet.*"
    {
        type            zeroGradient;
        //value   uniform 0;
    }
    
    /*
    electrodSidesTop
    {
        //type            zeroGradient;
        type            fixedValue;
        value   uniform 0;
    }
    */

    /*electrodSidesBot
    {
	    type		 codedFixedValue;
	    value		 uniform 0 ;
	
	    name 		 rampV;
	    code
	    #{
		    const vectorField& Cf = patch().Cf();
		    scalarField& field = *this;
		
		    const scalar Vmax = 4e3;
		    const scalar zi = Cf[0][2];
		    const scalar zf = Cf[Cf.size()-1][2];
		    const scalar L = abs(zf-zi);
		
		    forAll(Cf, faceI)
		    {
			    const scalar z = Cf[faceI][2];
			    const scalar f_p = 1 + (z-zi)/L;
			    const scalar V_p = Vmax*f_p;	
			    field[faceI] = scalar (V_p);
		    }
	    #};
	}*/
    
   
    "electrodFaceTop"
    {
        type            zeroGradient;
        //type            fixedValue;
        //value   uniform 0;
    }
    
    "electrodFaceBot"
    {
        type            fixedValue;
        value   uniform 3e3;
    }

    "electrodSides.*"
    {
        type            zeroGradient;
    }

    "(front|back)"
    {
        type            wedge;
    }

    axis
    {
        type empty;
    }
}


// ************************************************************************* //
